|===============================================================================
|
|  DFTB+ development version (commit: 83e72f5d, base: 25.1)
|
|  Copyright (C) 2006 - 2025  DFTB+ developers group
|
|===============================================================================
|
|  When publishing results obtained with DFTB+, please cite the following
|  reference:
|
|    Recent Developments in DFTB+, a Software Package for Efficient Atomistic
|    Quantum Mechanical Simulations, J. Phys. Chem. A 129, 5373−5390 (2025).
|    [https://doi.org/10.1021/acs.jpca.5c01146]
|
|  You should also cite additional publications crediting the parametrization
|  data you use. Please consult the documentation of the SK-files for the
|  references.
|
|===============================================================================

Reading input file 'dftb_in.hsd'
Parser version: 15

--------------------------------------------------------------------------------
***  Converting input from parser version 14 to parser version 15 ...
***  Done.

Reading SK-files:
/home/avengers/dftb_workspace/dftb_parameters/3ob-3-1/O-O.skf
/home/avengers/dftb_workspace/dftb_parameters/3ob-3-1/O-H.skf
/home/avengers/dftb_workspace/dftb_parameters/3ob-3-1/H-H.skf
Done.


Processed input in HSD format written to 'dftb_pin.hsd'

Starting initialization...
--------------------------------------------------------------------------------
WARNING!
-> Dipole printed for extended system : value printed is not well defined
MPI processes:               16
OpenMP threads:              1
BLACS orbital grid size:     4 x 4
BLACS atom grid size:        4 x 4
Chosen random seed:          1338622796
Current stacksize:           unlimited
Mode:                        Static calculation
Self consistent charges:     Yes
SCC-tolerance:                 0.100000E-05
Max. scc iterations:                    200
Shell resolved Hubbard:      No
Spin polarisation:           No
Nr. of up electrons:           256.000000
Nr. of down electrons:         256.000000
Periodic boundaries:         Yes
Electronic solver:           Relatively robust
Mixer:                       Broyden mixer
Mixing parameter:                  0.200000
Nr. of chrg. vec. in memory:            200
Max. SCC-cycles:                        200
Electronic temperature:              0.100000E-07 H      0.272114E-06 eV
Initial charges:             Set automatically (system chrg:   0.000E+00)
Included shells:             O:  s, p
                             H:  s
K-points and weights:           1:  0.125000  0.125000  0.125000     0.031250
                                2:  0.125000  0.125000  0.375000     0.031250
                                3:  0.125000  0.125000  0.625000     0.031250
                                4:  0.125000  0.125000  0.875000     0.031250
                                5:  0.125000  0.375000  0.125000     0.031250
                                6:  0.125000  0.375000  0.375000     0.031250
                                7:  0.125000  0.375000  0.625000     0.031250
                                8:  0.125000  0.375000  0.875000     0.031250
                                9:  0.125000  0.625000  0.125000     0.031250
                               10:  0.125000  0.625000  0.375000     0.031250
                               11:  0.125000  0.625000  0.625000     0.031250
                               12:  0.125000  0.625000  0.875000     0.031250
                               13:  0.125000  0.875000  0.125000     0.031250
                               14:  0.125000  0.875000  0.375000     0.031250
                               15:  0.125000  0.875000  0.625000     0.031250
                               16:  0.125000  0.875000  0.875000     0.031250
                               17:  0.375000  0.125000  0.125000     0.031250
                               18:  0.375000  0.125000  0.375000     0.031250
                               19:  0.375000  0.125000  0.625000     0.031250
                               20:  0.375000  0.125000  0.875000     0.031250
                               21:  0.375000  0.375000  0.125000     0.031250
                               22:  0.375000  0.375000  0.375000     0.031250
                               23:  0.375000  0.375000  0.625000     0.031250
                               24:  0.375000  0.375000  0.875000     0.031250
                               25:  0.375000  0.625000  0.125000     0.031250
                               26:  0.375000  0.625000  0.375000     0.031250
                               27:  0.375000  0.625000  0.625000     0.031250
                               28:  0.375000  0.625000  0.875000     0.031250
                               29:  0.375000  0.875000  0.125000     0.031250
                               30:  0.375000  0.875000  0.375000     0.031250
                               31:  0.375000  0.875000  0.625000     0.031250
                               32:  0.375000  0.875000  0.875000     0.031250

K-points in absolute space:     1:  0.005327  0.005327  0.005327
                                2:  0.005327  0.005327  0.015981
                                3:  0.005327  0.005327  0.026635
                                4:  0.005327  0.005327  0.037289
                                5:  0.005327  0.015981  0.005327
                                6:  0.005327  0.015981  0.015981
                                7:  0.005327  0.015981  0.026635
                                8:  0.005327  0.015981  0.037289
                                9:  0.005327  0.026635  0.005327
                               10:  0.005327  0.026635  0.015981
                               11:  0.005327  0.026635  0.026635
                               12:  0.005327  0.026635  0.037289
                               13:  0.005327  0.037289  0.005327
                               14:  0.005327  0.037289  0.015981
                               15:  0.005327  0.037289  0.026635
                               16:  0.005327  0.037289  0.037289
                               17:  0.015981  0.005327  0.005327
                               18:  0.015981  0.005327  0.015981
                               19:  0.015981  0.005327  0.026635
                               20:  0.015981  0.005327  0.037289
                               21:  0.015981  0.015981  0.005327
                               22:  0.015981  0.015981  0.015981
                               23:  0.015981  0.015981  0.026635
                               24:  0.015981  0.015981  0.037289
                               25:  0.015981  0.026635  0.005327
                               26:  0.015981  0.026635  0.015981
                               27:  0.015981  0.026635  0.026635
                               28:  0.015981  0.026635  0.037289
                               29:  0.015981  0.037289  0.005327
                               30:  0.015981  0.037289  0.015981
                               31:  0.015981  0.037289  0.026635
                               32:  0.015981  0.037289  0.037289

Extra options:
                             Mulliken analysis

--------------------------------------------------------------------------------

***  Geometry step: 0

 iSCC Total electronic   Diff electronic      SCC error    
    1   -0.26321522E+03    0.00000000E+00    0.85219620E+00
    2   -0.26338703E+03   -0.26321522E+03    0.64713894E+00
    3   -0.26360647E+03   -0.17180440E+00    0.42997346E-01
    4   -0.26360700E+03   -0.21944472E+00    0.18421555E-01
    5   -0.26360709E+03   -0.52950426E-03    0.24060821E-02
    6   -0.26360709E+03   -0.86341677E-04    0.51595855E-03
    7   -0.26360709E+03   -0.78144444E-06    0.15351991E-03
    8   -0.26360709E+03   -0.50458482E-07    0.17427119E-04
    9   -0.26360709E+03   -0.29679086E-08    0.11585693E-04
   10   -0.26360709E+03   -0.39108272E-10    0.11139768E-05
>> Charges saved for restart in charges.bin
   11   -0.26360709E+03   -0.15461410E-10    0.10338535E-06

Total Energy:                     -259.6781029972 H        -7066.2007 eV
Extrapolated to 0K:               -259.6781029972 H        -7066.2007 eV
Total Mermin free energy:         -259.6781029972 H        -7066.2007 eV
Force related energy:             -259.6781029972 H        -7066.2007 eV


--------------------------------------------------------------------------------
DFTB+ running times                          cpu [s]             wall clock [s]
--------------------------------------------------------------------------------
Global initialisation                  +       0.00 (  0.0%)       0.01 (  0.0%)
Pre-SCC initialisation                 +       0.03 (  0.1%)       0.04 (  0.1%)
SCC                                    +      39.69 ( 99.9%)      40.22 ( 99.9%)
--------------------------------------------------------------------------------
Missing                                +       0.00 (  0.0%)       0.00 (  0.0%)
Total                                  =      39.73 (100.0%)      40.27 (100.0%)
--------------------------------------------------------------------------------
